# vtk DataFile Version 4.2
vtk output
ASCII
DATASET UNSTRUCTURED_GRID
POINTS 32 double
360 90 0 360 -90 0 360 0 0 
360 -90 0 60 -90 0 90 -90 0 
90 0 0 0 0 0 150 -90 0 
180 -90 0 180 0 0 90 0 0 
240 -90 0 270 -90 0 270 0 0 
180 0 0 360 -90 0 360 0 0 
360 90 0 360 0 0 0 0 0 
90 0 0 30 90 0 0 90 0 
90 0 0 180 0 0 120 90 0 
90 90 0 180 0 0 270 0 0 
210 90 0 180 90 0 
CELLS 8 40
4 0 1 2 3 
4 4 5 6 7 
4 8 9 10 11 
4 12 13 14 15 
4 16 17 18 19 
4 20 21 22 23 
4 24 25 26 27 
4 28 29 30 31 

CELL_TYPES 8
9
9
9
9
9
9
9
9

CELL_DATA 8
FIELD FieldData 2
edge_integrated_velocity 4 8 double
0 -2.4492935983e-16 -2.4492935983e-16 0 8.2035780211e-18 1 1 -5.3028761936e-17 -3.0616169979e-17 
1.2246467991e-16 -1 1 -8.2035780211e-18 -1 -1 1.7549344185e-16 -2.4492935983e-16 2.4492935983e-16 
2.4492935983e-16 -2.4492935983e-16 1 -1 3.0616169979e-17 0 -1 -6.9435917978e-17 -8.2035780211e-18 
-1 -1 1 -3.0616169979e-17 -1.2246467991e-16 
cell_loop_integrals 1 8 double
0 -5.7993540526e-17 0 1.5757346554e-16 0 -3.0616169979e-17 -1.1102230246e-16 -6.8963755032e-17 
POINT_DATA 32
FIELD FieldData 1
stream_function 1 32 double
-1.4997597827e-32 -1.4997597827e-32 -2.4492935983e-16 -1.4997597827e-32 5.3028761936e-17 6.1232339957e-17 1 0 3.0616169979e-17 
7.4987989133e-33 1.2246467991e-16 1 -5.3028761936e-17 -6.1232339957e-17 -1 1.2246467991e-16 -1.4997597827e-32 -2.4492935983e-16 
-1.4997597827e-32 -2.4492935983e-16 0 1 3.0616169979e-17 0 1 1.2246467991e-16 5.3028761936e-17 
6.1232339957e-17 1.2246467991e-16 -1 -3.0616169979e-17 7.4987989133e-33 
