# vtk DataFile Version 4.2
vtk output
ASCII
DATASET UNSTRUCTURED_GRID
POINTS 15 double
0 -90 0 90 -90 0 180 -90 0 
270 -90 0 360 -90 0 0 0 0 
90 0 0 180 0 0 270 0 0 
360 0 0 0 90 0 90 90 0 
180 90 0 270 90 0 360 90 0 

CELLS 8 40
4 0 1 6 5 
4 1 2 7 6 
4 2 3 8 7 
4 3 4 9 8 
4 5 6 11 10 
4 6 7 12 11 
4 7 8 13 12 
4 8 9 14 13 

CELL_TYPES 8
9
9
9
9
9
9
9
9

CELL_DATA 8
FIELD FieldData 1
edge_integrated_velocity 4 8 double
6.1232339957e-17 1 1 0 -6.1232339957e-17 1.2246467991e-16 -1 1 -6.1232339957e-17 
-1 -1 1.2246467991e-16 6.1232339957e-17 -2.4492935983e-16 1 -1 1 -1 
6.1232339957e-17 0 -1 -1.2246467991e-16 -6.1232339957e-17 -1 -1 1 -6.1232339957e-17 
-1.2246467991e-16 1 2.4492935983e-16 6.1232339957e-17 1 
