# vtk DataFile Version 4.2
vtk output
ASCII
DATASET UNSTRUCTURED_GRID
POINTS 24000 double
0 -90 0 3.6 -90 0 3.6 -87 0 
0 -87 0 3.6 -90 0 7.2 -90 0 
7.2 -87 0 3.6 -87 0 7.2 -90 0 
10.8 -90 0 10.8 -87 0 7.2 -87 0 
10.8 -90 0 14.4 -90 0 14.4 -87 0 
10.8 -87 0 14.4 -90 0 18 -90 0 
18 -87 0 14.4 -87 0 18 -90 0 
21.6 -90 0 21.6 -87 0 18 -87 0 
21.6 -90 0 25.2 -90 0 25.2 -87 0 
21.6 -87 0 25.2 -90 0 28.8 -90 0 
28.8 -87 0 25.2 -87 0 28.8 -90 0 
32.4 -90 0 32.4 -87 0 28.8 -87 0 
32.4 -90 0 36 -90 0 36 -87 0 
32.4 -87 0 36 -90 0 39.6 -90 0 
39.6 -87 0 36 -87 0 39.6 -90 0 
43.2 -90 0 43.2 -87 0 39.6 -87 0 
43.2 -90 0 46.8 -90 0 46.8 -87 0 
43.2 -87 0 46.8 -90 0 50.4 -90 0 
50.4 -87 0 46.8 -87 0 50.4 -90 0 
54 -90 0 54 -87 0 50.4 -87 0 
54 -90 0 57.6 -90 0 57.6 -87 0 
54 -87 0 57.6 -90 0 61.2 -90 0 
61.2 -87 0 57.6 -87 0 61.2 -90 0 
64.8 -90 0 64.8 -87 0 61.2 -87 0 
64.8 -90 0 68.4 -90 0 68.4 -87 0 
64.8 -87 0 68.4 -90 0 72 -90 0 
72 -87 0 68.4 -87 0 72 -90 0 
75.6 -90 0 75.6 -87 0 72 -87 0 
75.6 -90 0 79.2 -90 0 79.2 -87 0 
75.6 -87 0 79.2 -90 0 82.8 -90 0 
82.8 -87 0 79.2 -87 0 82.8 -90 0 
86.4 -90 0 86.4 -87 0 82.8 -87 0 
86.4 -90 0 90 -90 0 90 -87 0 
86.4 -87 0 90 -90 0 93.6 -90 0 
93.6 -87 0 90 -87 0 93.6 -90 0 
97.2 -90 0 97.2 -87 0 93.6 -87 0 
97.2 -90 0 100.8 -90 0 100.8 -87 0 
97.2 -87 0 100.8 -90 0 104.4 -90 0 
104.4 -87 0 100.8 -87 0 104.4 -90 0 
108 -90 0 108 -87 0 104.4 -87 0 
108 -90 0 111.6 -90 0 111.6 -87 0 
108 -87 0 111.6 -90 0 115.2 -90 0 
115.2 -87 0 111.6 -87 0 115.2 -90 0 
118.8 -90 0 118.8 -87 0 115.2 -87 0 
118.8 -90 0 122.4 -90 0 122.4 -87 0 
118.8 -87 0 122.4 -90 0 126 -90 0 
126 -87 0 122.4 -87 0 126 -90 0 
129.6 -90 0 129.6 -87 0 126 -87 0 
129.6 -90 0 133.2 -90 0 133.2 -87 0 
129.6 -87 0 133.2 -90 0 136.8 -90 0 
136.8 -87 0 133.2 -87 0 136.8 -90 0 
140.4 -90 0 140.4 -87 0 136.8 -87 0 
140.4 -90 0 144 -90 0 144 -87 0 
140.4 -87 0 144 -90 0 147.6 -90 0 
147.6 -87 0 144 -87 0 147.6 -90 0 
151.2 -90 0 151.2 -87 0 147.6 -87 0 
151.2 -90 0 154.8 -90 0 154.8 -87 0 
151.2 -87 0 154.8 -90 0 158.4 -90 0 
158.4 -87 0 154.8 -87 0 158.4 -90 0 
162 -90 0 162 -87 0 158.4 -87 0 
162 -90 0 165.6 -90 0 165.6 -87 0 
162 -87 0 165.6 -90 0 169.2 -90 0 
169.2 -87 0 165.6 -87 0 169.2 -90 0 
172.8 -90 0 172.8 -87 0 169.2 -87 0 
172.8 -90 0 176.4 -90 0 176.4 -87 0 
172.8 -87 0 176.4 -90 0 180 -90 0 
180 -87 0 176.4 -87 0 180 -90 0 
183.6 -90 0 183.6 -87 0 180 -87 0 
183.6 -90 0 187.2 -90 0 187.2 -87 0 
183.6 -87 0 187.2 -90 0 190.8 -90 0 
190.8 -87 0 187.2 -87 0 190.8 -90 0 
194.4 -90 0 194.4 -87 0 190.8 -87 0 
194.4 -90 0 198 -90 0 198 -87 0 
194.4 -87 0 198 -90 0 201.6 -90 0 
201.6 -87 0 198 -87 0 201.6 -90 0 
205.2 -90 0 205.2 -87 0 201.6 -87 0 
205.2 -90 0 208.8 -90 0 208.8 -87 0 
205.2 -87 0 208.8 -90 0 212.4 -90 0 
212.4 -87 0 208.8 -87 0 212.4 -90 0 
216 -90 0 216 -87 0 212.4 -87 0 
216 -90 0 219.6 -90 0 219.6 -87 0 
216 -87 0 219.6 -90 0 223.2 -90 0 
223.2 -87 0 219.6 -87 0 223.2 -90 0 
226.8 -90 0 226.8 -87 0 223.2 -87 0 
226.8 -90 0 230.4 -90 0 230.4 -87 0 
226.8 -87 0 230.4 -90 0 234 -90 0 
234 -87 0 230.4 -87 0 234 -90 0 
237.6 -90 0 237.6 -87 0 234 -87 0 
237.6 -90 0 241.2 -90 0 241.2 -87 0 
237.6 -87 0 241.2 -90 0 244.8 -90 0 
244.8 -87 0 241.2 -87 0 244.8 -90 0 
248.4 -90 0 248.4 -87 0 244.8 -87 0 
248.4 -90 0 252 -90 0 252 -87 0 
248.4 -87 0 252 -90 0 255.6 -90 0 
255.6 -87 0 252 -87 0 255.6 -90 0 
259.2 -90 0 259.2 -87 0 255.6 -87 0 
259.2 -90 0 262.8 -90 0 262.8 -87 0 
259.2 -87 0 262.8 -90 0 266.4 -90 0 
266.4 -87 0 262.8 -87 0 266.4 -90 0 
270 -90 0 270 -87 0 266.4 -87 0 
270 -90 0 273.6 -90 0 273.6 -87 0 
270 -87 0 273.6 -90 0 277.2 -90 0 
277.2 -87 0 273.6 -87 0 277.2 -90 0 
280.8 -90 0 280.8 -87 0 277.2 -87 0 
280.8 -90 0 284.4 -90 0 284.4 -87 0 
280.8 -87 0 284.4 -90 0 288 -90 0 
288 -87 0 284.4 -87 0 288 -90 0 
291.6 -90 0 291.6 -87 0 288 -87 0 
291.6 -90 0 295.2 -90 0 295.2 -87 0 
291.6 -87 0 295.2 -90 0 298.8 -90 0 
298.8 -87 0 295.2 -87 0 298.8 -90 0 
302.4 -90 0 302.4 -87 0 298.8 -87 0 
302.4 -90 0 306 -90 0 306 -87 0 
302.4 -87 0 306 -90 0 309.6 -90 0 
309.6 -87 0 306 -87 0 309.6 -90 0 
313.2 -90 0 313.2 -87 0 309.6 -87 0 
313.2 -90 0 316.8 -90 0 316.8 -87 0 
313.2 -87 0 316.8 -90 0 320.4 -90 0 
320.4 -87 0 316.8 -87 0 320.4 -90 0 
324 -90 0 324 -87 0 320.4 -87 0 
324 -90 0 327.6 -90 0 327.6 -87 0 
324 -87 0 327.6 -90 0 331.2 -90 0 
331.2 -87 0 327.6 -87 0 331.2 -90 0 
334.8 -90 0 334.8 -87 0 331.2 -87 0 
334.8 -90 0 338.4 -90 0 338.4 -87 0 
334.8 -87 0 338.4 -90 0 342 -90 0 
342 -87 0 338.4 -87 0 342 -90 0 
345.6 -90 0 345.6 -87 0 342 -87 0 
345.6 -90 0 349.2 -90 0 349.2 -87 0 
345.6 -87 0 349.2 -90 0 352.8 -90 0 
352.8 -87 0 349.2 -87 0 352.8 -90 0 
356.4 -90 0 356.4 -87 0 352.8 -87 0 
356.4 -90 0 360 -90 0 360 -87 0 
356.4 -87 0 0 -87 0 3.6 -87 0 
3.6 -84 0 0 -84 0 3.6 -87 0 
7.2 -87 0 7.2 -84 0 3.6 -84 0 
7.2 -87 0 10.8 -87 0 10.8 -84 0 
7.2 -84 0 10.8 -87 0 14.4 -87 0 
14.4 -84 0 10.8 -84 0 14.4 -87 0 
18 -87 0 18 -84 0 14.4 -84 0 
18 -87 0 21.6 -87 0 21.6 -84 0 
18 -84 0 21.6 -87 0 25.2 -87 0 
25.2 -84 0 21.6 -84 0 25.2 -87 0 
28.8 -87 0 28.8 -84 0 25.2 -84 0 
28.8 -87 0 32.4 -87 0 32.4 -84 0 
28.8 -84 0 32.4 -87 0 36 -87 0 
36 -84 0 32.4 -84 0 36 -87 0 
39.6 -87 0 39.6 -84 0 36 -84 0 
39.6 -87 0 43.2 -87 0 43.2 -84 0 
39.6 -84 0 43.2 -87 0 46.8 -87 0 
46.8 -84 0 43.2 -84 0 46.8 -87 0 
50.4 -87 0 50.4 -84 0 46.8 -84 0 
50.4 -87 0 54 -87 0 54 -84 0 
50.4 -84 0 54 -87 0 57.6 -87 0 
57.6 -84 0 54 -84 0 57.6 -87 0 
61.2 -87 0 61.2 -84 0 57.6 -84 0 
61.2 -87 0 64.8 -87 0 64.8 -84 0 
61.2 -84 0 64.8 -87 0 68.4 -87 0 
68.4 -84 0 64.8 -84 0 68.4 -87 0 
72 -87 0 72 -84 0 68.4 -84 0 
72 -87 0 75.6 -87 0 75.6 -84 0 
72 -84 0 75.6 -87 0 79.2 -87 0 
79.2 -84 0 75.6 -84 0 79.2 -87 0 
82.8 -87 0 82.8 -84 0 79.2 -84 0 
82.8 -87 0 86.4 -87 0 86.4 -84 0 
82.8 -84 0 86.4 -87 0 90 -87 0 
90 -84 0 86.4 -84 0 90 -87 0 
93.6 -87 0 93.6 -84 0 90 -84 0 
93.6 -87 0 97.2 -87 0 97.2 -84 0 
93.6 -84 0 97.2 -87 0 100.8 -87 0 
100.8 -84 0 97.2 -84 0 100.8 -87 0 
104.4 -87 0 104.4 -84 0 100.8 -84 0 
104.4 -87 0 108 -87 0 108 -84 0 
104.4 -84 0 108 -87 0 111.6 -87 0 
111.6 -84 0 108 -84 0 111.6 -87 0 
115.2 -87 0 115.2 -84 0 111.6 -84 0 
115.2 -87 0 118.8 -87 0 118.8 -84 0 
115.2 -84 0 118.8 -87 0 122.4 -87 0 
122.4 -84 0 118.8 -84 0 122.4 -87 0 
126 -87 0 126 -84 0 122.4 -84 0 
126 -87 0 129.6 -87 0 129.6 -84 0 
126 -84 0 129.6 -87 0 133.2 -87 0 
133.2 -84 0 129.6 -84 0 133.2 -87 0 
136.8 -87 0 136.8 -84 0 133.2 -84 0 
136.8 -87 0 140.4 -87 0 140.4 -84 0 
136.8 -84 0 140.4 -87 0 144 -87 0 
144 -84 0 140.4 -84 0 144 -87 0 
147.6 -87 0 147.6 -84 0 144 -84 0 
147.6 -87 0 151.2 -87 0 151.2 -84 0 
147.6 -84 0 151.2 -87 0 154.8 -87 0 
154.8 -84 0 151.2 -84 0 154.8 -87 0 
158.4 -87 0 158.4 -84 0 154.8 -84 0 
158.4 -87 0 162 -87 0 162 -84 0 
158.4 -84 0 162 -87 0 165.6 -87 0 
165.6 -84 0 162 -84 0 165.6 -87 0 
169.2 -87 0 169.2 -84 0 165.6 -84 0 
169.2 -87 0 172.8 -87 0 172.8 -84 0 
169.2 -84 0 172.8 -87 0 176.4 -87 0 
176.4 -84 0 172.8 -84 0 176.4 -87 0 
180 -87 0 180 -84 0 176.4 -84 0 
180 -87 0 183.6 -87 0 183.6 -84 0 
180 -84 0 183.6 -87 0 187.2 -87 0 
187.2 -84 0 183.6 -84 0 187.2 -87 0 
190.8 -87 0 190.8 -84 0 187.2 -84 0 
190.8 -87 0 194.4 -87 0 194.4 -84 0 
190.8 -84 0 194.4 -87 0 198 -87 0 
198 -84 0 194.4 -84 0 198 -87 0 
201.6 -87 0 201.6 -84 0 198 -84 0 
201.6 -87 0 205.2 -87 0 205.2 -84 0 
201.6 -84 0 205.2 -87 0 208.8 -87 0 
208.8 -84 0 205.2 -84 0 208.8 -87 0 
212.4 -87 0 212.4 -84 0 208.8 -84 0 
212.4 -87 0 216 -87 0 216 -84 0 
212.4 -84 0 216 -87 0 219.6 -87 0 
219.6 -84 0 216 -84 0 219.6 -87 0 
223.2 -87 0 223.2 -84 0 219.6 -84 0 
223.2 -87 0 226.8 -87 0 226.8 -84 0 
223.2 -84 0 226.8 -87 0 230.4 -87 0 
230.4 -84 0 226.8 -84 0 230.4 -87 0 
234 -87 0 234 -84 0 230.4 -84 0 
234 -87 0 237.6 -87 0 237.6 -84 0 
234 -84 0 237.6 -87 0 241.2 -87 0 
241.2 -84 0 237.6 -84 0 241.2 -87 0 
244.8 -87 0 244.8 -84 0 241.2 -84 0 
244.8 -87 0 248.4 -87 0 248.4 -84 0 
244.8 -84 0 248.4 -87 0 252 -87 0 
252 -84 0 248.4 -84 0 252 -87 0 
255.6 -87 0 255.6 -84 0 252 -84 0 
255.6 -87 0 259.2 -87 0 259.2 -84 0 
255.6 -84 0 259.2 -87 0 262.8 -87 0 
262.8 -84 0 259.2 -84 0 262.8 -87 0 
266.4 -87 0 266.4 -84 0 262.8 -84 0 
266.4 -87 0 270 -87 0 270 -84 0 
266.4 -84 0 270 -87 0 273.6 -87 0 
273.6 -84 0 270 -84 0 273.6 -87 0 
277.2 -87 0 277.2 -84 0 273.6 -84 0 
277.2 -87 0 280.8 -87 0 280.8 -84 0 
277.2 -84 0 280.8 -87 0 284.4 -87 0 
284.4 -84 0 280.8 -84 0 284.4 -87 0 
288 -87 0 288 -84 0 284.4 -84 0 
288 -87 0 291.6 -87 0 291.6 -84 0 
288 -84 0 291.6 -87 0 295.2 -87 0 
295.2 -84 0 291.6 -84 0 295.2 -87 0 
298.8 -87 0 298.8 -84 0 295.2 -84 0 
298.8 -87 0 302.4 -87 0 302.4 -84 0 
298.8 -84 0 302.4 -87 0 306 -87 0 
306 -84 0 302.4 -84 0 306 -87 0 
309.6 -87 0 309.6 -84 0 306 -84 0 
309.6 -87 0 313.2 -87 0 313.2 -84 0 
309.6 -84 0 313.2 -87 0 316.8 -87 0 
316.8 -84 0 313.2 -84 0 316.8 -87 0 
320.4 -87 0 320.4 -84 0 316.8 -84 0 
320.4 -87 0 324 -87 0 324 -84 0 
320.4 -84 0 324 -87 0 327.6 -87 0 
327.6 -84 0 324 -84 0 327.6 -87 0 
331.2 -87 0 331.2 -84 0 327.6 -84 0 
331.2 -87 0 334.8 -87 0 334.8 -84 0 
331.2 -84 0 334.8 -87 0 338.4 -87 0 
338.4 -84 0 334.8 -84 0 338.4 -87 0 
342 -87 0 342 -84 0 338.4 -84 0 
342 -87 0 345.6 -87 0 345.6 -84 0 
342 -84 0 345.6 -87 0 349.2 -87 0 
349.2 -84 0 345.6 -84 0 349.2 -87 0 
352.8 -87 0 352.8 -84 0 349.2 -84 0 
352.8 -87 0 356.4 -87 0 356.4 -84 0 
352.8 -84 0 356.4 -87 0 360 -87 0 
360 -84 0 356.4 -84 0 0 -84 0 
3.6 -84 0 3.6 -81 0 0 -81 0 
3.6 -84 0 7.2 -84 0 7.2 -81 0 
3.6 -81 0 7.2 -84 0 10.8 -84 0 
10.8 -81 0 7.2 -81 0 10.8 -84 0 
14.4 -84 0 14.4 -81 0 10.8 -81 0 
14.4 -84 0 18 -84 0 18 -81 0 
14.4 -81 0 18 -84 0 21.6 -84 0 
21.6 -81 0 18 -81 0 21.6 -84 0 
25.2 -84 0 25.2 -81 0 21.6 -81 0 
[...]
CELL_DATA 6000
FIELD FieldData 2
edge_integrated_velocity 4 6000 double
3.8448104379e-18 0.0032862018826 0.0032862018826 0 3.8296367276e-18 0.0065594346276 0.0032732327451 0.0032862018826 3.7993491908e-18 
0.0098067802809 0.0032473456533 0.0065594346276 3.7540673585e-18 0.013015423053 0.0032086427718 0.0098067802809 3.6939699373e-18 0.016172699896 
0.0031572768432 0.013015423053 3.6192941045e-18 0.019266150481 0.0030934505853 0.016172699896 3.5303345713e-18 0.022283566373 0.0030174158912 
0.019266150481 3.4274424204e-18 0.025213039208 0.0029294728352 0.022283566373 3.3110237201e-18 0.028043007696 0.0028299684882 0.025213039208 
3.1815379219e-18 0.030762303244 0.0027192955484 0.028043007696 3.039496047e-18 0.033360194036 0.0025978907915 0.030762303244 2.8854586698e-18 
0.035826427382 0.0024662333464 0.033360194036 2.7200337055e-18 0.038151270187 0.0023248428051 0.035826427382 2.5438740108e-18 0.040325547359 
0.0021742771713 0.038151270187 2.3576748076e-18 0.042340678017 0.0020151306589 0.040325547359 2.162170939e-18 0.044188709364 0.0018480313464 
0.042340678017 1.9581339695e-18 0.045862348062 0.0016736386984 0.044188709364 1.7463691399e-18 0.047354989025 0.0014926409631 0.045862348062 
1.5277121891e-18 0.048660741481 0.0013057524559 0.047354989025 1.3030260562e-18 0.049774452221 0.0011137107402 0.048660741481 1.0731974748e-18 
0.050691725938 0.00091727371709 0.049774452221 8.391334732e-19 0.051408942572 0.00071721663366 0.050691725938 6.0175779518e-19 0.051923271596 
0.00051432902384 0.051408942572 3.6200725407e-19 0.052232683188 0.00030941159233 0.051923271596 1.2082803571e-19 0.052335956243 0.00010327305463 
0.052232683188 -1.2082803571e-19 0.052232683188 -0.00010327305463 0.052335956243 -3.6200725407e-19 0.051923271596 -0.00030941159233 0.052232683188 
-6.0175779518e-19 0.051408942572 -0.00051432902384 0.051923271596 -8.391334732e-19 0.050691725938 -0.00071721663366 0.051408942572 -1.0731974748e-18 
0.049774452221 -0.00091727371709 0.050691725938 -1.3030260562e-18 0.048660741481 -0.0011137107402 0.049774452221 -1.5277121891e-18 0.047354989025 
-0.0013057524559 0.048660741481 -1.7463691399e-18 0.045862348062 -0.0014926409631 0.047354989025 -1.9581339695e-18 0.044188709364 -0.0016736386984 
0.045862348062 -2.162170939e-18 0.042340678017 -0.0018480313464 0.044188709364 -2.3576748076e-18 0.040325547359 -0.0020151306589 0.042340678017 
-2.5438740108e-18 0.038151270187 -0.0021742771713 0.040325547359 -2.7200337055e-18 0.035826427382 -0.0023248428051 0.038151270187 -2.8854586698e-18 
0.033360194036 -0.0024662333464 0.035826427382 -3.039496047e-18 0.030762303244 -0.0025978907915 0.033360194036 -3.1815379219e-18 0.028043007696 
-0.0027192955484 0.030762303244 -3.3110237201e-18 0.025213039208 -0.0028299684882 0.028043007696 -3.4274424204e-18 0.022283566373 -0.0029294728352 
0.025213039208 -3.5303345713e-18 0.019266150481 -0.0030174158912 0.022283566373 -3.6192941045e-18 0.016172699896 -0.0030934505853 0.019266150481 
-3.6939699373e-18 0.013015423053 -0.0031572768432 0.016172699896 -3.7540673585e-18 0.0098067802809 -0.0032086427718 0.013015423053 -3.7993491908e-18 
0.0065594346276 -0.0032473456533 0.0098067802809 -3.8296367276e-18 0.0032862018826 -0.0032732327451 0.0065594346276 -3.8448104379e-18 6.4093061293e-18 
-0.0032862018826 0.0032862018826 -3.8448104379e-18 -0.0032862018826 -0.0032862018826 6.4093061293e-18 -3.8296367276e-18 -0.0065594346276 -0.0032732327451 
-0.0032862018826 -3.7993491908e-18 -0.0098067802809 -0.0032473456533 -0.0065594346276 -3.7540673585e-18 -0.013015423053 -0.0032086427718 -0.0098067802809 
-3.6939699373e-18 -0.016172699896 -0.0031572768432 -0.013015423053 -3.6192941045e-18 -0.019266150481 -0.0030934505853 -0.016172699896 -3.5303345713e-18 
-0.022283566373 -0.0030174158912 -0.019266150481 -3.4274424204e-18 -0.025213039208 -0.0029294728352 -0.022283566373 -3.3110237201e-18 -0.028043007696 
-0.0028299684882 -0.025213039208 -3.1815379219e-18 -0.030762303244 -0.0027192955484 -0.028043007696 -3.039496047e-18 -0.033360194036 -0.0025978907915 
-0.030762303244 -2.8854586698e-18 -0.035826427382 -0.0024662333464 -0.033360194036 -2.7200337055e-18 -0.038151270187 -0.0023248428051 -0.035826427382 
-2.5438740108e-18 -0.040325547359 -0.0021742771713 -0.038151270187 -2.3576748076e-18 -0.042340678017 -0.0020151306589 -0.040325547359 -2.162170939e-18 
-0.044188709364 -0.0018480313464 -0.042340678017 -1.9581339695e-18 -0.045862348062 -0.0016736386984 -0.044188709364 -1.7463691399e-18 -0.047354989025 
-0.0014926409631 -0.045862348062 -1.5277121891e-18 -0.048660741481 -0.0013057524559 -0.047354989025 -1.3030260562e-18 -0.049774452221 -0.0011137107402 
-0.048660741481 -1.0731974748e-18 -0.050691725938 -0.00091727371709 -0.049774452221 -8.391334732e-19 -0.051408942572 -0.00071721663366 -0.050691725938 
-6.0175779518e-19 -0.051923271596 -0.00051432902384 -0.051408942572 -3.6200725407e-19 -0.052232683188 -0.00030941159233 -0.051923271596 -1.2082803571e-19 
-0.052335956243 -0.00010327305463 -0.052232683188 1.2082803571e-19 -0.052232683188 0.00010327305463 -0.052335956243 3.6200725407e-19 -0.051923271596 
0.00030941159233 -0.052232683188 6.0175779518e-19 -0.051408942572 0.00051432902384 -0.051923271596 8.391334732e-19 -0.050691725938 0.00071721663366 
-0.051408942572 1.0731974748e-18 -0.049774452221 0.00091727371709 -0.050691725938 1.3030260562e-18 -0.048660741481 0.0011137107402 -0.049774452221 
1.5277121891e-18 -0.047354989025 0.0013057524559 -0.048660741481 1.7463691399e-18 -0.045862348062 0.0014926409631 -0.047354989025 1.9581339695e-18 
-0.044188709364 0.0016736386984 -0.045862348062 2.162170939e-18 -0.042340678017 0.0018480313464 -0.044188709364 2.3576748076e-18 -0.040325547359 
0.0020151306589 -0.042340678017 2.5438740108e-18 -0.038151270187 0.0021742771713 -0.040325547359 2.7200337055e-18 -0.035826427382 0.0023248428051 
-0.038151270187 2.8854586698e-18 -0.033360194036 0.0024662333464 -0.035826427382 3.039496047e-18 -0.030762303244 0.0025978907915 -0.033360194036 
3.1815379219e-18 -0.028043007696 0.0027192955484 -0.030762303244 3.3110237201e-18 -0.025213039208 0.0028299684882 -0.028043007696 3.4274424204e-18 
-0.022283566373 0.0029294728352 -0.025213039208 3.5303345713e-18 -0.019266150481 0.0030174158912 -0.022283566373 3.6192941045e-18 -0.016172699896 
0.0030934505853 -0.019266150481 3.6939699373e-18 -0.013015423053 0.0031572768432 -0.016172699896 3.7540673585e-18 -0.0098067802809 0.0032086427718 
-0.013015423053 3.7993491908e-18 -0.0065594346276 0.0032473456533 -0.0098067802809 3.8296367276e-18 -0.0032862018826 0.0032732327451 -0.0065594346276 
3.8448104379e-18 -1.2818612259e-17 0.0032862018826 -0.0032862018826 0.0032862018826 0.0032771946316 0.0065633965142 0 0.0032732327451 
0.0065414556732 0.0065374937867 0.0032771946316 0.0032473456533 0.0097799005778 0.0064857905579 0.0065414556732 0.0032086427718 0.012979748683 
0.0064084908768 0.0097799005778 0.0031572768432 0.01612837165 0.0063058998101 0.012979748683 0.0030934505853 0.019213343302 0.0061784222376 
0.01612837165 0.0030174158912 0.022222488666 0.0060265612553 0.019213343302 0.0029294728352 0.02514393202 0.0058509161889 0.022222488666 
0.0028299684882 0.027966143761 0.0056521802294 0.02514393202 0.0027192955484 0.030677985909 0.0054311376967 0.027966143761 0.0025978907915 
0.033268756063 0.0051886609448 0.030677985909 0.0024662333464 0.035728229635 0.0049257069187 0.033268756063 0.0023248428051 0.038046700207 
0.0046433133776 0.035728229635 0.0021742771713 0.040215017836 0.0043425948 0.038046700207 0.0020151306589 0.042224625162 0.0040247379847 
0.040215017836 0.0018480313464 0.044067591183 0.0036909973673 0.042224625162 0.0016736386984 0.045736642554 0.0033426900695 0.044067591183 
0.0014926409631 0.047225192292 0.0029811907011 0.045736642554 0.0013057524559 0.048527365771 0.002607925935 0.047225192292 0.0011137107402 
0.049638023908 0.0022243688767 0.048527365771 0.00091727371709 0.050552783441 0.0018320332507 0.049638023908 0.00071721663366 0.051268034234 
0.0014324674264 0.050552783441 0.00051432902384 0.051780953518 0.0010272483076 0.051268034234 0.00030941159233 0.052089517034 0.000617975109 
0.051780953518 0.00010327305463 0.052192507025 0.000206263045 0.052089517034 -0.00010327305463 0.052089517034 -0.000206263045 0.052192507025 
-0.00030941159233 0.051780953518 -0.000617975109 0.052089517034 -0.00051432902384 0.051268034234 -0.0010272483076 0.051780953518 -0.00071721663366 
0.050552783441 -0.0014324674264 0.051268034234 -0.00091727371709 0.049638023908 -0.0018320332507 0.050552783441 -0.0011137107402 0.048527365771 
-0.0022243688767 0.049638023908 -0.0013057524559 0.047225192292 -0.002607925935 0.048527365771 -0.0014926409631 0.045736642554 -0.0029811907011 
0.047225192292 -0.0016736386984 0.044067591183 -0.0033426900695 0.045736642554 -0.0018480313464 0.042224625162 -0.0036909973673 0.044067591183 
-0.0020151306589 0.040215017836 -0.0040247379847 0.042224625162 -0.0021742771713 0.038046700207 -0.0043425948 0.040215017836 -0.0023248428051 
0.035728229635 -0.0046433133776 0.038046700207 -0.0024662333464 0.033268756063 -0.0049257069187 0.035728229635 -0.0025978907915 0.030677985909 
-0.0051886609448 0.033268756063 -0.0027192955484 0.027966143761 -0.0054311376967 0.030677985909 -0.0028299684882 0.02514393202 -0.0056521802294 
0.027966143761 -0.0029294728352 0.022222488666 -0.0058509161889 0.02514393202 -0.0030174158912 0.019213343302 -0.0060265612553 0.022222488666 
-0.0030934505853 0.01612837165 -0.0061784222376 0.019213343302 -0.0031572768432 0.012979748683 -0.0063058998101 0.01612837165 -0.0032086427718 
0.0097799005778 -0.0064084908768 0.012979748683 -0.0032473456533 0.0065414556732 -0.0064857905579 0.0097799005778 -0.0032732327451 0.0032771946316 
-0.0065374937867 0.0065414556732 -0.0032862018826 6.3917386667e-18 -0.0065633965142 0.0032771946316 -0.0032862018826 -0.0032771946316 -0.0065633965142 
6.3917386667e-18 -0.0032732327451 -0.0065414556732 -0.0065374937867 -0.0032771946316 -0.0032473456533 -0.0097799005778 -0.0064857905579 -0.0065414556732 
-0.0032086427718 -0.012979748683 -0.0064084908768 -0.0097799005778 -0.0031572768432 -0.01612837165 -0.0063058998101 -0.012979748683 -0.0030934505853 
-0.019213343302 -0.0061784222376 -0.01612837165 -0.0030174158912 -0.022222488666 -0.0060265612553 -0.019213343302 -0.0029294728352 -0.02514393202 
-0.0058509161889 -0.022222488666 -0.0028299684882 -0.027966143761 -0.0056521802294 -0.02514393202 -0.0027192955484 -0.030677985909 -0.0054311376967 
-0.027966143761 -0.0025978907915 -0.033268756063 -0.0051886609448 -0.030677985909 -0.0024662333464 -0.035728229635 -0.0049257069187 -0.033268756063 
-0.0023248428051 -0.038046700207 -0.0046433133776 -0.035728229635 -0.0021742771713 -0.040215017836 -0.0043425948 -0.038046700207 -0.0020151306589 
-0.042224625162 -0.0040247379847 -0.040215017836 -0.0018480313464 -0.044067591183 -0.0036909973673 -0.042224625162 -0.0016736386984 -0.045736642554 
-0.0033426900695 -0.044067591183 -0.0014926409631 -0.047225192292 -0.0029811907011 -0.045736642554 -0.0013057524559 -0.048527365771 -0.002607925935 
-0.047225192292 -0.0011137107402 -0.049638023908 -0.0022243688767 -0.048527365771 -0.00091727371709 -0.050552783441 -0.0018320332507 -0.049638023908 
-0.00071721663366 -0.051268034234 -0.0014324674264 -0.050552783441 -0.00051432902384 -0.051780953518 -0.0010272483076 -0.051268034234 -0.00030941159233 
-0.052089517034 -0.000617975109 -0.051780953518 -0.00010327305463 -0.052192507025 -0.000206263045 -0.052089517034 0.00010327305463 -0.052089517034 
0.000206263045 -0.052192507025 0.00030941159233 -0.051780953518 0.000617975109 -0.052089517034 0.00051432902384 -0.051268034234 0.0010272483076 
-0.051780953518 0.00071721663366 -0.050552783441 0.0014324674264 -0.051268034234 0.00091727371709 -0.049638023908 0.0018320332507 -0.050552783441 
0.0011137107402 -0.048527365771 0.0022243688767 -0.049638023908 0.0013057524559 -0.047225192292 0.002607925935 -0.048527365771 0.0014926409631 
-0.045736642554 0.0029811907011 -0.047225192292 0.0016736386984 -0.044067591183 0.0033426900695 -0.045736642554 0.0018480313464 -0.042224625162 
0.0036909973673 -0.044067591183 0.0020151306589 -0.040215017836 0.0040247379847 -0.042224625162 0.0021742771713 -0.038046700207 0.0043425948 
-0.040215017836 0.0023248428051 -0.035728229635 0.0046433133776 -0.038046700207 0.0024662333464 -0.033268756063 0.0049257069187 -0.035728229635 
0.0025978907915 -0.030677985909 0.0051886609448 -0.033268756063 0.0027192955484 -0.027966143761 0.0054311376967 -0.030677985909 0.0028299684882 
-0.02514393202 0.0056521802294 -0.027966143761 0.0029294728352 -0.022222488666 0.0058509161889 -0.02514393202 0.0030174158912 -0.019213343302 
0.0060265612553 -0.022222488666 0.0030934505853 -0.01612837165 0.0061784222376 -0.019213343302 0.0031572768432 -0.012979748683 0.0063058998101 
-0.01612837165 0.0032086427718 -0.0097799005778 0.0064084908768 -0.012979748683 0.0032473456533 -0.0065414556732 0.0064857905579 -0.0097799005778 
0.0032732327451 -0.0032771946316 0.0065374937867 -0.0065414556732 0.0032862018826 -1.2783477333e-17 0.0065633965142 -0.0032771946316 0.0065633965142 
0.003259204818 0.0098226013322 0 0.0065374937867 0.0065055470436 0.0097838360122 0.003259204818 0.0064857905579 0.009726214847 
0.0097064583614 0.0065055470436 0.0064084908768 0.012908497724 0.0095907737538 0.009726214847 0.0063058998101 0.016039836658 0.0094372387438 
0.012908497724 0.0061784222376 0.019107873684 0.009246459264 0.016039836658 0.0060265612553 0.022100500663 0.0090191882338 0.019107873684 
0.0058509161889 0.025005907062 0.0087563225881 0.022100500663 0.0056521802294 0.02781262657 0.0084588997375 0.025005907062 0.0054311376967 
0.030509582347 0.0081280934741 0.02781262657 0.0051886609448 0.033086130742 0.0077652093392 0.030509582347 0.0049257069187 0.035532103294 
0.0073716794706 0.033086130742 0.0046433133776 0.037837846867 0.006949056951 0.035532103294 0.0043425948 0.039994261745 0.0064990096783 
0.037837846867 0.0040247379847 0.041992837544 0.0060233137835 0.039994261745 0.0036909973673 0.043825686798 0.0055238466209 0.041992837544 
0.0033426900695 0.045485576088 0.0050025793594 0.043825686798 0.0029811907011 0.046965954589 0.0044615692026 0.045485576088 0.002607925935 
0.048260979925 0.0039029512705 0.046965954589 0.0022243688767 0.049365541221 0.0033289301727 0.048260979925 0.0018320332507 0.050275279278 
0.0027417713085 0.049365541221 0.0014324674264 0.050986603778 0.0021437919254 0.050275279278 0.0010272483076 0.051496707445 0.0015373519751 
0.050986603778 0.000617975109 0.051803577135 0.00092484479885 0.051496707445 0.000206263045 0.051906001773 0.0003086876827 0.051803577135 
-0.000206263045 0.051803577135 -0.0003086876827 0.051906001773 -0.000617975109 0.051496707445 -0.00092484479885 0.051803577135 -0.0010272483076 
0.050986603778 -0.0015373519751 0.051496707445 -0.0014324674264 0.050275279278 -0.0021437919254 0.050986603778 -0.0018320332507 0.049365541221 
-0.0027417713085 0.050275279278 -0.0022243688767 0.048260979925 -0.0033289301727 0.049365541221 -0.002607925935 0.046965954589 -0.0039029512705 
0.048260979925 -0.0029811907011 0.045485576088 -0.0044615692026 0.046965954589 -0.0033426900695 0.043825686798 -0.0050025793594 0.045485576088 
-0.0036909973673 0.041992837544 -0.0055238466209 0.043825686798 -0.0040247379847 0.039994261745 -0.0060233137835 0.041992837544 -0.0043425948 
0.037837846867 -0.0064990096783 0.039994261745 -0.0046433133776 0.035532103294 -0.006949056951 0.037837846867 -0.0049257069187 0.033086130742 
-0.0073716794706 0.035532103294 -0.0051886609448 0.030509582347 -0.0077652093392 0.033086130742 -0.0054311376967 0.02781262657 -0.0081280934741 
0.030509582347 -0.0056521802294 0.025005907062 -0.0084588997375 0.02781262657 -0.0058509161889 0.022100500663 -0.0087563225881 0.025005907062 
-0.0060265612553 0.019107873684 -0.0090191882338 0.022100500663 -0.0061784222376 0.016039836658 -0.009246459264 0.019107873684 -0.0063058998101 
0.012908497724 -0.0094372387438 0.016039836658 -0.0064084908768 0.009726214847 -0.0095907737538 0.012908497724 -0.0064857905579 0.0065055470436 
-0.0097064583614 0.009726214847 -0.0065374937867 0.003259204818 -0.0097838360122 0.0065055470436 -0.0065633965142 6.3566518927e-18 -0.0098226013322 
0.003259204818 -0.0065633965142 -0.003259204818 -0.0098226013322 6.3566518927e-18 -0.0065374937867 -0.0065055470436 -0.0097838360122 -0.003259204818 
-0.0064857905579 -0.009726214847 -0.0097064583614 -0.0065055470436 -0.0064084908768 -0.012908497724 -0.0095907737538 -0.009726214847 -0.0063058998101 
-0.016039836658 -0.0094372387438 -0.012908497724 -0.0061784222376 -0.019107873684 -0.009246459264 -0.016039836658 -0.0060265612553 -0.022100500663 
-0.0090191882338 -0.019107873684 -0.0058509161889 -0.025005907062 -0.0087563225881 -0.022100500663 -0.0056521802294 -0.02781262657 -0.0084588997375 
-0.025005907062 -0.0054311376967 -0.030509582347 -0.0081280934741 -0.02781262657 -0.0051886609448 -0.033086130742 -0.0077652093392 -0.030509582347 
-0.0049257069187 -0.035532103294 -0.0073716794706 -0.033086130742 -0.0046433133776 -0.037837846867 -0.006949056951 -0.035532103294 -0.0043425948 
-0.039994261745 -0.0064990096783 -0.037837846867 -0.0040247379847 -0.041992837544 -0.0060233137835 -0.039994261745 -0.0036909973673 -0.043825686798 
-0.0055238466209 -0.041992837544 -0.0033426900695 -0.045485576088 -0.0050025793594 -0.043825686798 -0.0029811907011 -0.046965954589 -0.0044615692026 
-0.045485576088 -0.002607925935 -0.048260979925 -0.0039029512705 -0.046965954589 -0.0022243688767 -0.049365541221 -0.0033289301727 -0.048260979925 
-0.0018320332507 -0.050275279278 -0.0027417713085 -0.049365541221 -0.0014324674264 -0.050986603778 -0.0021437919254 -0.050275279278 -0.0010272483076 
-0.051496707445 -0.0015373519751 -0.050986603778 -0.000617975109 -0.051803577135 -0.00092484479885 -0.051496707445 -0.000206263045 -0.051906001773 
-0.0003086876827 -0.051803577135 0.000206263045 -0.051803577135 0.0003086876827 -0.051906001773 0.000617975109 -0.051496707445 0.00092484479885 
-0.051803577135 0.0010272483076 -0.050986603778 0.0015373519751 -0.051496707445 0.0014324674264 -0.050275279278 0.0021437919254 -0.050986603778 
0.0018320332507 -0.049365541221 0.0027417713085 -0.050275279278 0.0022243688767 -0.048260979925 0.0033289301727 -0.049365541221 0.002607925935 
-0.046965954589 0.0039029512705 -0.048260979925 0.0029811907011 -0.045485576088 0.0044615692026 -0.046965954589 0.0033426900695 -0.043825686798 
0.0050025793594 -0.045485576088 0.0036909973673 -0.041992837544 0.0055238466209 -0.043825686798 0.0040247379847 -0.039994261745 0.0060233137835 
-0.041992837544 0.0043425948 -0.037837846867 0.0064990096783 -0.039994261745 0.0046433133776 -0.035532103294 0.006949056951 -0.037837846867 
0.0049257069187 -0.033086130742 0.0073716794706 -0.035532103294 0.0051886609448 -0.030509582347 0.0077652093392 -0.033086130742 0.0054311376967 
-0.02781262657 0.0081280934741 -0.030509582347 0.0056521802294 -0.025005907062 0.0084588997375 -0.02781262657 0.0058509161889 -0.022100500663 
0.0087563225881 -0.025005907062 0.0060265612553 -0.019107873684 0.0090191882338 -0.022100500663 0.0061784222376 -0.016039836658 0.009246459264 
-0.019107873684 0.0063058998101 -0.012908497724 0.0094372387438 -0.016039836658 0.0064084908768 -0.009726214847 0.0095907737538 -0.012908497724 
0.0064857905579 -0.0065055470436 0.0097064583614 -0.009726214847 0.0065374937867 -0.003259204818 0.0097838360122 -0.0065055470436 0.0065633965142 
-1.2713303785e-17 0.0098226013322 -0.003259204818 0.0098226013322 0.0032322817505 0.013054883083 0 0.0097838360122 0.0064518071616 
0.013003361423 0.0032322817505 0.0097064583614 0.0096458702374 0.012900521437 0.0064518071616 0.0095907737538 0.01280186547 0.012746768987 
0.0096458702374 0.0094372387438 0.015907337589 0.012542710862 0.01280186547 0.009246459264 0.018950030713 0.012289152388 0.015907337589 